# vtk DataFile Version 4.2
vtk output
ASCII
DATASET UNSTRUCTURED_GRID
POINTS 79 float
-0.575049 1.05741 0.00212699 -0.575049 1.23365 0.095877 -0.575049 1.05741 0.095877 
-0.287312 1.23365 0.095877 -0.575049 1.23365 0.00212699 -0.287312 1.05741 0.095877 
-0.287312 1.05741 0.00212699 -0.287312 1.23365 0.00212699 -0.862786 1.23365 0.095877 
-0.862786 1.23365 0.00212699 -0.575049 1.40988 0.00212699 -0.575049 1.40988 0.095877 
-0.862786 1.40988 0.095877 -0.862786 1.40988 0.00212699 -0.287312 1.40988 0.00212699 
-0.287312 1.40988 0.095877 -0.862786 1.23365 -0.091623 -0.575049 1.23365 -0.091623 
-0.575049 1.40988 -0.091623 -0.862786 1.40988 -0.091623 -0.287312 1.23365 -0.091623 
-0.287312 1.40988 -0.091623 -0.575049 1.05741 -0.091623 -0.287312 1.05741 -0.091623 
-0.862786 1.58612 0.095877 -0.862786 1.58612 0.00212699 -0.575049 1.58612 0.095877 
-0.575049 1.58612 0.00212699 -0.287312 1.58612 0.095877 -0.287312 1.58612 0.00212699 
-0.862786 1.58612 -0.091623 -0.575049 1.58612 -0.091623 -0.575049 1.05741 -0.185373 
-0.575049 1.23365 -0.185373 -0.287312 1.05741 -0.185373 -0.287312 1.23365 -0.185373 
-0.862786 1.23365 -0.185373 -0.575049 1.40988 -0.185373 -0.862786 1.40988 -0.185373 
-0.287312 1.40988 -0.185373 -0.862786 1.23365 -0.279123 -0.862786 1.40988 -0.279123 
-0.287312 1.58612 -0.091623 -0.862786 1.58612 -0.185373 -0.575049 1.58612 -0.185373 
-0.287312 1.58612 -0.185373 -0.862786 1.58612 -0.279123 -0.575049 1.58612 -0.279123 
-0.575049 1.76235 0.00212699 -0.575049 1.76235 0.095877 -0.862786 1.76235 0.095877 
-0.862786 1.76235 0.00212699 -0.287312 1.76235 0.00212699 -0.287312 1.76235 0.095877 
-0.575049 1.76235 -0.091623 -0.862786 1.76235 -0.091623 -0.287312 1.76235 -0.091623 
-0.862786 1.93859 0.095877 -0.862786 1.93859 0.00212699 -0.575049 1.93859 0.095877 
-0.575049 1.93859 0.00212699 -0.287312 1.93859 0.095877 -0.287312 1.93859 0.00212699 
-0.862786 1.93859 -0.091623 -0.575049 1.93859 -0.091623 -0.287312 1.58612 -0.279123 
-0.575049 1.76235 -0.185373 -0.862786 1.76235 -0.185373 -0.287312 1.76235 -0.185373 
-0.575049 1.76235 -0.279123 -0.862786 1.76235 -0.279123 -0.287312 1.76235 -0.279123 
-0.287312 1.93859 -0.091623 -0.862786 1.93859 -0.185373 -0.575049 1.93859 -0.185373 
-0.287312 1.93859 -0.185373 -0.862786 1.93859 -0.279123 -0.575049 1.93859 -0.279123 
-0.287312 1.93859 -0.279123 
METADATA
INFORMATION 1
NAME L2_NORM_RANGE LOCATION vtkDataArray
DATA 2 1.09575 2.1402 

CELLS 195 975
4 0 1 2 3 
4 0 4 1 3 
4 0 5 6 3 
4 0 2 5 3 
4 0 6 7 3 
4 0 7 4 3 
4 8 4 9 10 
4 8 1 4 10 
4 1 11 10 8 
4 10 11 12 8 
4 10 12 13 8 
4 10 13 9 8 
4 10 1 4 3 
4 10 11 1 3 
4 4 3 7 10 
4 10 14 15 3 
4 10 15 11 3 
4 10 7 14 3 
4 16 9 4 10 
4 16 4 17 10 
4 17 10 18 16 
4 18 10 19 16 
4 10 13 19 16 
4 10 9 13 16 
4 17 18 10 20 
4 17 10 4 20 
4 20 4 7 10 
4 18 21 10 20 
4 21 14 10 20 
4 10 14 7 20 
4 22 17 0 20 
4 0 17 4 20 
4 22 0 23 20 
4 0 6 23 20 
4 0 4 7 20 
4 0 7 6 20 
4 24 13 25 10 
4 24 12 13 10 
4 12 11 10 24 
4 10 11 26 24 
4 10 26 27 24 
4 10 27 25 24 
4 10 26 11 28 
4 10 27 26 28 
4 10 15 14 28 
4 10 11 15 28 
4 10 14 29 28 
4 10 29 27 28 
4 30 25 13 10 
4 30 13 19 10 
4 19 10 18 30 
4 10 31 18 30 
4 31 10 27 30 
4 10 25 27 30 
4 32 17 22 20 
4 32 33 17 20 
4 32 23 34 20 
4 32 22 23 20 
4 32 34 35 20 
4 32 35 33 20 
4 16 33 36 37 
4 16 17 33 37 
4 17 18 37 16 
4 37 18 19 16 
4 37 19 38 16 
4 37 38 36 16 
4 37 17 33 20 
4 37 18 17 20 
4 33 20 35 37 
4 37 39 21 20 
4 37 21 18 20 
4 37 35 39 20 
4 40 36 33 37 
4 37 38 41 40 
4 37 36 38 40 
4 18 31 10 42 
4 10 31 27 42 
4 18 10 21 42 
4 10 14 21 42 
4 10 27 29 42 
4 10 29 14 42 
4 30 38 43 37 
4 30 19 38 37 
4 19 18 37 30 
4 37 18 31 30 
4 37 31 44 30 
4 37 44 43 30 
4 37 31 18 42 
4 37 44 31 42 
4 37 21 39 42 
4 37 18 21 42 
4 37 39 45 42 
4 37 45 44 42 
4 46 43 38 37 
4 46 38 41 37 
4 47 37 44 46 
4 37 43 44 46 
4 24 27 25 48 
4 24 26 27 48 
4 26 49 48 24 
4 48 49 50 24 
4 48 50 51 24 
4 48 51 25 24 
4 48 26 27 28 
4 48 49 26 28 
4 27 28 29 48 
4 48 52 53 28 
4 48 53 49 28 
4 48 29 52 28 
4 30 25 27 48 
4 30 27 31 48 
4 31 48 54 30 
4 54 48 55 30 
4 48 51 55 30 
4 48 25 51 30 
4 31 54 48 42 
4 31 48 27 42 
4 42 27 29 48 
4 54 56 48 42 
4 56 52 48 42 
4 48 52 29 42 
4 57 51 58 48 
4 57 50 51 48 
4 50 49 48 57 
4 48 49 59 57 
4 48 59 60 57 
4 48 60 58 57 
4 48 59 49 61 
4 48 60 59 61 
4 48 53 52 61 
4 48 49 53 61 
4 48 52 62 61 
4 48 62 60 61 
4 63 58 51 48 
4 63 51 55 48 
4 55 48 54 63 
4 48 64 54 63 
4 64 48 60 63 
4 48 58 60 63 
4 37 47 44 65 
4 37 44 45 65 
4 30 44 43 66 
4 30 31 44 66 
4 31 54 66 30 
4 66 54 55 30 
4 66 55 67 30 
4 66 67 43 30 
4 66 31 44 42 
4 66 54 31 42 
4 44 42 45 66 
4 66 68 56 42 
4 66 56 54 42 
4 66 45 68 42 
4 46 43 44 66 
4 46 44 47 66 
4 47 66 69 46 
4 69 66 70 46 
4 66 67 70 46 
4 66 43 67 46 
4 47 69 66 65 
4 47 66 44 65 
4 65 44 45 66 
4 69 71 66 65 
4 71 68 66 65 
4 66 68 45 65 
4 54 64 48 72 
4 48 64 60 72 
4 54 48 56 72 
4 48 52 56 72 
4 48 60 62 72 
4 48 62 52 72 
4 63 67 73 66 
4 63 55 67 66 
4 55 54 66 63 
4 66 54 64 63 
4 66 64 74 63 
4 66 74 73 63 
4 66 64 54 72 
4 66 74 64 72 
4 66 56 68 72 
4 66 54 56 72 
4 66 68 75 72 
4 66 75 74 72 
4 76 73 67 66 
4 76 67 70 66 
4 70 66 69 76 
4 66 77 69 76 
4 77 66 74 76 
4 66 73 74 76 
4 69 77 66 78 
4 66 77 74 78 
4 69 66 71 78 
4 66 68 71 78 
4 66 74 75 78 
4 66 75 68 78 

CELL_TYPES 195
10
10
10
10
10
10
10
10
10
10
10
10
10
10
10
10
10
10
10
10
10
10
10
10
10
10
10
10
10
10
10
10
10
10
10
10
10
10
10
10
10
10
10
10
10
10
10
10
10
10
10
10
10
10
10
10
10
10
10
10
10
10
10
10
10
10
10
10
10
10
10
10
10
10
10
10
10
10
10
10
10
10
10
10
10
10
10
10
10
10
10
10
10
10
10
10
10
10
10
10
10
10
10
10
10
10
10
10
10
10
10
10
10
10
10
10
10
10
10
10
10
10
10
10
10
10
10
10
10
10
10
10
10
10
10
10
10
10
10
10
10
10
10
10
10
10
10
10
10
10
10
10
10
10
10
10
10
10
10
10
10
10
10
10
10
10
10
10
10
10
10
10
10
10
10
10
10
10
10
10
10
10
10
10
10
10
10
10
10
10
10
10
10
10
10

CELL_DATA 195
VECTORS MinDihedralAngles float
28.0112 28.0112 66.391 32.9207 61.9888 71.9534 32.9207 71.9534 71.9534 
18.0466 31.4869 80.6884 28.0112 58.5131 66.391 31.4869 31.4869 80.6884 
18.0466 18.0466 80.6884 32.9207 61.9888 71.9534 28.0112 58.5131 66.391 
18.0466 31.4869 80.6884 32.9207 71.9534 71.9534 28.0112 58.5131 66.391 
32.9207 61.9888 61.9888 28.0112 58.5131 66.391 18.0466 31.4869 80.6884 
32.9207 61.9888 71.9534 18.0466 18.0466 80.6884 58.5131 58.5131 66.391 
18.0466 31.4869 80.6884 32.9207 71.9534 71.9534 28.0112 58.5131 66.391 
18.0466 31.4869 80.6884 32.9207 61.9888 71.9534 58.5131 58.5131 66.391 
28.0112 58.5131 66.391 32.9207 32.9207 61.9888 18.0466 18.0466 80.6884 
18.0466 18.0466 80.6884 32.9207 61.9888 71.9534 28.0112 58.5131 66.391 
28.0112 28.0112 66.391 32.9207 61.9888 61.9888 18.0466 31.4869 80.6884 
32.9207 61.9888 71.9534 18.0466 31.4869 80.6884 58.5131 58.5131 66.391 
28.0112 28.0112 66.391 32.9207 61.9888 71.9534 18.0466 31.4869 80.6884 
28.0112 58.5131 66.391 32.9207 61.9888 61.9888 18.0466 31.4869 80.6884 
28.0112 28.0112 66.391 32.9207 61.9888 71.9534 32.9207 71.9534 71.9534 
18.0466 31.4869 80.6884 28.0112 58.5131 66.391 31.4869 31.4869 80.6884 
28.0112 58.5131 66.391 32.9207 61.9888 61.9888 18.0466 31.4869 80.6884 
28.0112 28.0112 66.391 32.9207 32.9207 61.9888 31.4869 31.4869 80.6884 
28.0112 28.0112 66.391 32.9207 61.9888 71.9534 32.9207 71.9534 71.9534 
18.0466 31.4869 80.6884 28.0112 58.5131 66.391 31.4869 31.4869 80.6884 
18.0466 18.0466 80.6884 32.9207 61.9888 71.9534 28.0112 58.5131 66.391 
18.0466 31.4869 80.6884 32.9207 71.9534 71.9534 28.0112 58.5131 66.391 
32.9207 61.9888 61.9888 28.0112 58.5131 66.391 18.0466 31.4869 80.6884 
32.9207 61.9888 71.9534 18.0466 18.0466 80.6884 58.5131 58.5131 66.391 
18.0466 31.4869 80.6884 32.9207 61.9888 71.9534 58.5131 58.5131 66.391 
28.0112 28.0112 66.391 32.9207 61.9888 61.9888 18.0466 31.4869 80.6884 
32.9207 61.9888 71.9534 18.0466 31.4869 80.6884 58.5131 58.5131 66.391 
28.0112 28.0112 66.391 32.9207 61.9888 71.9534 18.0466 31.4869 80.6884 
28.0112 58.5131 66.391 32.9207 61.9888 61.9888 18.0466 31.4869 80.6884 
28.0112 28.0112 66.391 32.9207 61.9888 71.9534 32.9207 71.9534 71.9534 
18.0466 31.4869 80.6884 28.0112 58.5131 66.391 31.4869 31.4869 80.6884 
28.0112 58.5131 66.391 32.9207 61.9888 61.9888 32.9207 32.9207 61.9888 
31.4869 31.4869 80.6884 18.0466 18.0466 80.6884 32.9207 61.9888 71.9534 
28.0112 58.5131 66.391 18.0466 31.4869 80.6884 32.9207 71.9534 71.9534 
28.0112 58.5131 66.391 32.9207 61.9888 61.9888 28.0112 58.5131 66.391 
18.0466 31.4869 80.6884 32.9207 61.9888 71.9534 18.0466 18.0466 80.6884 
58.5131 58.5131 66.391 18.0466 31.4869 80.6884 32.9207 71.9534 71.9534 
28.0112 58.5131 66.391 18.0466 31.4869 80.6884 32.9207 61.9888 71.9534 
58.5131 58.5131 66.391 28.0112 58.5131 66.391 32.9207 32.9207 61.9888 
18.0466 18.0466 80.6884 18.0466 18.0466 80.6884 32.9207 61.9888 71.9534 
28.0112 58.5131 66.391 28.0112 28.0112 66.391 32.9207 61.9888 71.9534 
18.0466 31.4869 80.6884 28.0112 58.5131 66.391 32.9207 61.9888 61.9888 
18.0466 31.4869 80.6884 28.0112 28.0112 66.391 32.9207 61.9888 71.9534 
32.9207 71.9534 71.9534 18.0466 31.4869 80.6884 28.0112 58.5131 66.391 
31.4869 31.4869 80.6884 28.0112 58.5131 66.391 32.9207 61.9888 61.9888 
18.0466 31.4869 80.6884 28.0112 28.0112 66.391 32.9207 32.9207 61.9888 
31.4869 31.4869 80.6884 32.9207 61.9888 61.9888 18.0466 31.4869 80.6884 
18.0466 18.0466 80.6884 32.9207 61.9888 71.9534 28.0112 58.5131 66.391 
18.0466 31.4869 80.6884 32.9207 71.9534 71.9534 28.0112 58.5131 66.391 
32.9207 61.9888 61.9888 28.0112 58.5131 66.391 18.0466 31.4869 80.6884 
32.9207 61.9888 71.9534 18.0466 18.0466 80.6884 58.5131 58.5131 66.391 
18.0466 31.4869 80.6884 32.9207 71.9534 71.9534 28.0112 58.5131 66.391 
18.0466 31.4869 80.6884 32.9207 61.9888 71.9534 58.5131 58.5131 66.391 
28.0112 58.5131 66.391 32.9207 32.9207 61.9888 18.0466 18.0466 80.6884 
18.0466 18.0466 80.6884 32.9207 61.9888 71.9534 28.0112 58.5131 66.391 
28.0112 28.0112 66.391 32.9207 61.9888 61.9888 18.0466 31.4869 80.6884 
32.9207 61.9888 71.9534 18.0466 31.4869 80.6884 58.5131 58.5131 66.391 
28.0112 28.0112 66.391 32.9207 61.9888 71.9534 18.0466 31.4869 80.6884 
28.0112 58.5131 66.391 32.9207 61.9888 61.9888 18.0466 31.4869 80.6884 
28.0112 28.0112 66.391 32.9207 61.9888 71.9534 32.9207 71.9534 71.9534 
18.0466 31.4869 80.6884 28.0112 58.5131 66.391 31.4869 31.4869 80.6884 
28.0112 58.5131 66.391 32.9207 61.9888 61.9888 18.0466 31.4869 80.6884 
28.0112 28.0112 66.391 32.9207 32.9207 61.9888 31.4869 31.4869 80.6884 
28.0112 28.0112 66.391 32.9207 61.9888 61.9888 18.0466 31.4869 80.6884 
32.9207 61.9888 71.9534 18.0466 31.4869 80.6884 58.5131 58.5131 66.391 

METADATA
INFORMATION 1
NAME L2_NORM_RANGE LOCATION vtkDataArray
DATA 2 77.3112 106.95 

FIELD FieldData 3
MaxDihedralAngles 3 195 float
90 90 90 90 90 90 90 90 90 
90 90 90 90 90 90 90 90 90 
90 90 90 90 90 90 90 90 90 
90 90 90 90 90 90 90 90 90 
90 90 90 90 90 90 80.6884 90 90 
90 90 90 90 90 90 90 90 90 
90 90 90 90 90 90 66.391 90 90 
80.6884 90 90 90 90 90 90 90 90 
90 90 90 71.9534 90 90 90 90 90 
90 90 90 90 90 90 90 90 90 
90 90 90 90 90 90 80.6884 90 90 
90 90 90 90 90 90 90 90 90 
90 90 90 90 90 90 90 90 90 
90 90 90 90 90 90 90 90 90 
90 90 90 90 90 90 90 90 90 
90 90 90 90 90 90 90 90 90 
90 90 90 90 90 90 80.6884 90 90 
90 90 90 71.9534 90 90 90 90 90 
90 90 90 90 90 90 90 90 90 
90 90 90 90 90 90 90 90 90 
90 90 90 90 90 90 90 90 90 
90 90 90 90 90 90 90 90 90 
90 90 90 90 90 90 80.6884 90 90 
90 90 90 90 90 90 90 90 90 
90 90 90 90 90 90 90 90 90 
90 90 90 90 90 90 80.6884 90 90 
90 90 90 90 90 90 90 90 90 
90 90 90 90 90 90 90 90 90 
90 90 90 90 90 90 90 90 90 
90 90 90 90 90 90 90 90 90 
90 90 90 90 90 90 90 90 90 
90 90 90 90 90 90 71.9534 90 90 
90 90 90 90 90 90 90 90 90 
90 90 90 90 90 90 90 90 90 
90 90 90 90 90 90 90 90 90 
80.6884 90 90 90 90 90 90 90 90 
90 90 90 90 90 90 90 90 90 
66.391 90 90 80.6884 90 90 90 90 90 
90 90 90 90 90 90 71.9534 90 90 
90 90 90 90 90 90 90 90 90 
90 90 90 90 90 90 90 90 90 
90 90 90 90 90 90 90 90 90 
90 90 90 90 90 90 90 90 90 
90 90 90 90 90 90 90 90 90 
90 90 90 90 90 90 90 90 90 
80.6884 90 90 90 90 90 71.9534 90 90 
90 90 90 90 90 90 90 90 90 
90 90 90 90 90 90 90 90 90 
90 90 90 90 90 90 90 90 90 
90 90 90 90 90 90 80.6884 90 90 
90 90 90 90 90 90 90 90 90 
90 90 90 90 90 90 66.391 90 90 
80.6884 90 90 90 90 90 90 90 90 
90 90 90 71.9534 90 90 90 90 90 
90 90 90 90 90 90 90 90 90 
90 90 90 90 90 90 80.6884 90 90 
90 90 90 90 90 90 90 90 90 
90 90 90 90 90 90 90 90 90 
90 90 90 90 90 90 90 90 90 
90 90 90 90 90 90 90 90 90 
90 90 90 90 90 90 90 90 90 
90 90 90 90 90 90 80.6884 90 90 
90 90 90 71.9534 90 90 90 90 90 
90 90 90 90 90 90 80.6884 90 90 
90 90 90 90 90 90 90 90 90 

METADATA
INFORMATION 1
NAME L2_NORM_RANGE LOCATION vtkDataArray
DATA 2 143.554 155.885 

cell_law 1 195 int
0 0 0 0 0 0 0 0 0 
0 0 0 0 0 0 0 0 0 
0 0 0 0 0 0 0 0 0 
0 0 0 0 0 0 0 0 0 
0 0 0 0 0 0 0 0 0 
0 0 0 0 0 0 0 0 0 
0 0 0 0 0 0 0 0 0 
0 0 0 0 0 0 0 0 0 
0 0 0 0 0 0 0 0 0 
0 0 0 0 0 0 0 0 0 
0 0 0 0 0 0 0 0 0 
0 0 0 0 0 0 0 0 0 
0 0 0 0 0 0 0 0 0 
0 0 0 0 0 0 0 0 0 
0 0 0 0 0 0 0 0 0 
0 0 0 0 0 0 0 0 0 
0 0 0 0 0 0 0 0 0 
0 0 0 0 0 0 0 0 0 
0 0 0 0 0 0 0 0 0 
0 0 0 0 0 0 0 0 0 
0 0 0 0 0 0 0 0 0 
0 0 0 0 0 0 
METADATA
INFORMATION 0

vtkOriginalCellIds 1 195 vtkIdType
3 4 5 6 7 8 12 13 14 
15 16 17 18 19 20 21 22 23 
24 25 26 27 28 29 30 31 32 
33 34 35 36 37 38 39 40 41 
42 43 44 45 46 47 48 49 50 
51 52 53 54 55 56 57 58 59 
63 64 65 66 67 68 69 70 71 
72 73 74 75 76 77 78 79 80 
82 83 84 85 86 87 88 89 90 
91 92 93 94 95 96 97 98 99 
100 101 102 103 104 105 106 107 108 
109 110 111 112 113 114 115 116 117 
118 119 120 121 122 123 124 125 126 
127 128 129 130 131 132 133 134 135 
136 137 138 139 140 141 142 143 144 
145 146 147 148 149 150 151 152 153 
154 155 156 157 158 159 160 161 162 
163 164 165 166 167 168 169 170 171 
172 173 174 175 176 177 178 179 180 
181 182 183 184 185 186 187 188 189 
190 191 192 193 194 195 196 197 198 
199 200 201 202 203 204 
POINT_DATA 79
SCALARS Indication float
LOOKUP_TABLE default
1 1 1 1 1 1 1 1 1 
1 1 1 1 1 1 1 1 1 
1 1 1 1 1 1 1 1 1 
1 1 1 1 1 1 1 1 1 
1 1 1 1 1 1 1 1 1 
1 1 1 1 1 1 1 1 1 
1 1 1 1 1 1 1 1 1 
1 1 1 1 1 1 1 1 1 
1 1 1 1 1 1 1 
METADATA
INFORMATION 0

FIELD FieldData 1
vtkOriginalPointIds 1 79 vtkIdType
0 2 1 6 4 7 8 9 3 
5 13 14 15 16 17 18 12 10 
19 20 21 22 11 23 24 25 26 
27 28 29 30 31 32 33 35 36 
34 37 38 39 40 41 42 43 44 
45 46 47 48 49 50 51 52 53 
54 55 56 57 58 59 60 61 62 
63 64 65 66 67 68 69 70 71 
72 73 74 75 76 77 78 
