# vtk DataFile Version 4.2
vtk output
ASCII
DATASET UNSTRUCTURED_GRID
POINTS 10 float
-0.862786 1.58612 0.095877 -0.575049 1.58612 0.095877 -0.287312 1.58612 0.095877 
-0.862786 1.76235 0.095877 -0.862786 1.93859 0.095877 -0.575049 1.76235 0.00212699 
-0.575049 1.76235 0.095877 -0.287312 1.76235 0.095877 -0.575049 1.93859 0.095877 
-0.287312 1.93859 0.095877 
METADATA
INFORMATION 1
NAME L2_NORM_RANGE LOCATION vtkDataArray
DATA 2 1.61478 2.12408 

CELLS 8 40
4 1 6 5 0 
4 5 6 3 0 
4 5 6 1 2 
4 5 7 6 2 
4 3 6 5 4 
4 5 6 8 4 
4 5 8 6 9 
4 5 6 7 9 

CELL_TYPES 8
10
10
10
10
10
10
10
10

CELL_DATA 8
VECTORS MinDihedralAngles float
28.0112 58.5131 66.391 18.0466 31.4869 80.6884 28.0112 58.5131 66.391 
18.0466 18.0466 80.6884 18.0466 31.4869 80.6884 28.0112 58.5131 66.391 
28.0112 28.0112 66.391 18.0466 31.4869 80.6884 
METADATA
INFORMATION 1
NAME L2_NORM_RANGE LOCATION vtkDataArray
DATA 2 77.3112 92.8234 

FIELD FieldData 3
MaxDihedralAngles 3 8 float
90 90 90 90 90 90 90 90 90 
90 90 90 90 90 90 90 90 90 
90 90 90 90 90 90 
METADATA
INFORMATION 1
NAME L2_NORM_RANGE LOCATION vtkDataArray
DATA 2 155.885 155.885 

cell_law 1 8 int
0 0 0 0 0 0 0 0 
METADATA
INFORMATION 0

vtkOriginalCellIds 1 8 vtkIdType
542 543 547 550 566 567 570 573 
POINT_DATA 10
SCALARS Indication float
LOOKUP_TABLE default
1 1 1 1 1 1 1 1 1 
1 
METADATA
INFORMATION 0

FIELD FieldData 1
vtkOriginalPointIds 1 10 vtkIdType
112 122 124 162 167 172 173 175 178 
180 
