# vtk DataFile Version 4.2
vtk output
ASCII
DATASET UNSTRUCTURED_GRID
POINTS 27 float
-0.862786 1.58612 -0.091623 -0.575049 1.58612 -0.185373 -0.862786 1.58612 -0.185373 
-0.575049 1.76235 -0.185373 -0.575049 1.58612 -0.091623 -0.575049 1.76235 -0.091623 
-0.862786 1.76235 -0.091623 -0.862786 1.76235 -0.185373 -0.287312 1.58612 -0.091623 
-0.287312 1.58612 -0.185373 -0.287312 1.76235 -0.185373 -0.287312 1.76235 -0.091623 
-0.862786 1.58612 -0.279123 -0.575049 1.58612 -0.279123 -0.575049 1.76235 -0.279123 
-0.862786 1.76235 -0.279123 -0.287312 1.58612 -0.279123 -0.287312 1.76235 -0.279123 
-0.862786 1.93859 -0.091623 -0.862786 1.93859 -0.185373 -0.575049 1.93859 -0.091623 
-0.575049 1.93859 -0.185373 -0.287312 1.93859 -0.091623 -0.287312 1.93859 -0.185373 
-0.862786 1.93859 -0.279123 -0.575049 1.93859 -0.279123 -0.287312 1.93859 -0.279123 

METADATA
INFORMATION 1
NAME L2_NORM_RANGE LOCATION vtkDataArray
DATA 2 1.61453 2.1402 

CELLS 48 240
4 0 1 2 3 
4 0 4 1 3 
4 4 5 3 0 
4 3 5 6 0 
4 3 6 7 0 
4 3 7 2 0 
4 3 4 1 8 
4 3 5 4 8 
4 1 8 9 3 
4 3 10 11 8 
4 3 11 5 8 
4 3 9 10 8 
4 12 2 1 3 
4 12 1 13 3 
4 13 3 14 12 
4 14 3 15 12 
4 3 7 15 12 
4 3 2 7 12 
4 13 14 3 16 
4 13 3 1 16 
4 16 1 9 3 
4 14 17 3 16 
4 17 10 3 16 
4 3 10 9 16 
4 18 7 19 3 
4 18 6 7 3 
4 6 5 3 18 
4 3 5 20 18 
4 3 20 21 18 
4 3 21 19 18 
4 3 20 5 22 
4 3 21 20 22 
4 3 11 10 22 
4 3 5 11 22 
4 3 10 23 22 
4 3 23 21 22 
4 24 19 7 3 
4 24 7 15 3 
4 15 3 14 24 
4 3 25 14 24 
4 25 3 21 24 
4 3 19 21 24 
4 14 25 3 26 
4 3 25 21 26 
4 14 3 17 26 
4 3 10 17 26 
4 3 21 23 26 
4 3 23 10 26 

CELL_TYPES 48
10
10
10
10
10
10
10
10
10
10
10
10
10
10
10
10
10
10
10
10
10
10
10
10
10
10
10
10
10
10
10
10
10
10
10
10
10
10
10
10
10
10
10
10
10
10
10
10

CELL_DATA 48
VECTORS MinDihedralAngles float
18.0466 18.0466 80.6884 32.9207 61.9888 71.9534 28.0112 58.5131 66.391 
18.0466 31.4869 80.6884 32.9207 71.9534 71.9534 28.0112 58.5131 66.391 
32.9207 61.9888 61.9888 28.0112 58.5131 66.391 18.0466 31.4869 80.6884 
32.9207 61.9888 71.9534 18.0466 18.0466 80.6884 58.5131 58.5131 66.391 
18.0466 31.4869 80.6884 32.9207 71.9534 71.9534 28.0112 58.5131 66.391 
18.0466 31.4869 80.6884 32.9207 61.9888 71.9534 58.5131 58.5131 66.391 
28.0112 58.5131 66.391 32.9207 32.9207 61.9888 18.0466 18.0466 80.6884 
18.0466 18.0466 80.6884 32.9207 61.9888 71.9534 28.0112 58.5131 66.391 
28.0112 28.0112 66.391 32.9207 61.9888 71.9534 18.0466 31.4869 80.6884 
28.0112 58.5131 66.391 32.9207 61.9888 61.9888 18.0466 31.4869 80.6884 
28.0112 28.0112 66.391 32.9207 61.9888 71.9534 32.9207 71.9534 71.9534 
18.0466 31.4869 80.6884 28.0112 58.5131 66.391 31.4869 31.4869 80.6884 
28.0112 58.5131 66.391 32.9207 61.9888 61.9888 18.0466 31.4869 80.6884 
28.0112 28.0112 66.391 32.9207 32.9207 61.9888 31.4869 31.4869 80.6884 
28.0112 28.0112 66.391 32.9207 61.9888 61.9888 18.0466 31.4869 80.6884 
32.9207 61.9888 71.9534 18.0466 31.4869 80.6884 58.5131 58.5131 66.391 

METADATA
INFORMATION 1
NAME L2_NORM_RANGE LOCATION vtkDataArray
DATA 2 77.3112 106.95 

FIELD FieldData 3
MaxDihedralAngles 3 48 float
90 90 90 90 90 90 90 90 90 
90 90 90 90 90 90 90 90 90 
90 90 90 90 90 90 80.6884 90 90 
90 90 90 90 90 90 90 90 90 
90 90 90 90 90 90 66.391 90 90 
80.6884 90 90 90 90 90 90 90 90 
90 90 90 71.9534 90 90 90 90 90 
90 90 90 90 90 90 90 90 90 
90 90 90 90 90 90 90 90 90 
90 90 90 90 90 90 90 90 90 
90 90 90 90 90 90 90 90 90 
90 90 90 90 90 90 90 90 90 
90 90 90 90 90 90 80.6884 90 90 
90 90 90 71.9534 90 90 90 90 90 
90 90 90 90 90 90 80.6884 90 90 
90 90 90 90 90 90 90 90 90 

METADATA
INFORMATION 1
NAME L2_NORM_RANGE LOCATION vtkDataArray
DATA 2 143.554 155.885 

cell_law 1 48 int
0 0 0 0 0 0 0 0 0 
0 0 0 0 0 0 0 0 0 
0 0 0 0 0 0 0 0 0 
0 0 0 0 0 0 0 0 0 
0 0 0 0 0 0 0 0 0 
0 0 0 
METADATA
INFORMATION 0

vtkOriginalCellIds 1 48 vtkIdType
141 142 143 144 145 146 147 148 149 
150 151 152 153 154 155 156 157 158 
159 160 161 162 163 164 171 172 173 
174 175 176 177 178 179 180 181 182 
183 184 185 186 187 188 189 190 191 
192 193 194 
POINT_DATA 27
SCALARS Indication float
LOOKUP_TABLE default
1 1 1 1 1 1 1 1 1 
1 1 1 1 1 1 1 1 1 
1 1 1 1 1 1 1 1 1 

METADATA
INFORMATION 0

FIELD FieldData 1
vtkOriginalPointIds 1 27 vtkIdType
30 44 43 66 31 54 55 67 42 
45 68 56 46 47 69 70 65 71 
63 73 64 74 72 75 76 77 78 

